<?xml version="1.0"?>
<VTKFile type="PolyData" version="0.1" byte_order="LittleEndian" compressor="vtkZLibDataCompressor">
  <PolyData>
    <Piece NumberOfPoints="1401" NumberOfVerts="0" NumberOfLines="0" NumberOfStrips="0" NumberOfPolys="285">
      <PointData>
      </PointData>
      <CellData>
        <DataArray type="Float64" Name="Pressure" format="ascii" RangeMin="0" RangeMax="0">
          0 0 0 0 0 0
          0 0 0 0 0 0
          0 0 0 0 0 0
          0 0 0 0 0 0
          0 0 0 0 0 0
          0 0 0 0 0 0
          0 0 0 0 0 0
          0 0 0 0 0 0
          0 0 0 0 0 0
          0 0 0 0 0 0
          0 0 0 0 0 0
          0 0 0 0 0 0
          0 0 0 0 0 0
          0 0 0 0 0 0
          0 0 0 0 0 0
          0 0 0 0 0 0
          0 0 0 0 0 0
          0 0 0 0 0 0
          0 0 0 0 0 0
          0 0 0 0 0 0
          0 0 0 0 0 0
          0 0 0 0 0 0
          0 0 0 0 0 0
          0 0 0 0 0 0
          0 0 0 0 0 0
          0 0 0 0 0 0
          0 0 0 0 0 0
          0 0 0 0 0 0
          0 0 0 0 0 0
          0 0 0 0 0 0
          0 0 0 0 0 0
          0 0 0 0 0 0
          0 0 0 0 0 0
          0 0 0 0 0 0
          0 0 0 0 0 0
          0 0 0 0 0 0
          0 0 0 0 0 0
          0 0 0 0 0 0
          0 0 0 0 0 0
          0 0 0 0 0 0
          0 0 0 0 0 0
          0 0 0 0 0 0
          0 0 0 0 0 0
          0 0 0 0 0 0
          0 0 0 0 0 0
          0 0 0 0 0 0
          0 0 0 0 0 0
          0 0 0
        </DataArray>
      </CellData>
      <Points>
        <DataArray type="Float32" Name="Points" NumberOfComponents="3" format="ascii" RangeMin="0.38165384844" RangeMax="19.077975205">
          -2.0319159031 -13.794800758 0 0.48136404157 -0.18571928144 0
          8.5741872787 -0.73299497366 0 9.134677887 -1.6578572989 0
          10.215819359 -1.6019699574 0 10.706776619 -0.61162531376 0
          10.124803543 0.27094134688 0 9.0733556747 0.20545899868 0
          0.070471003652 1.5281686783 0 0.66921532154 0.58986532688 0
          1.734924674 0.60326331854 0 2.1975419521 1.5118260384 0
          1.6175279617 2.4666030407 0 0.55616635084 2.4963436127 0
          13.157998085 13.427361488 0 0.48136404157 -0.18571928144 0
          14.169908524 12.389526367 0 11.922249794 -6.1749625206 0
          12.532551765 -7.1184139252 0 13.626389503 -7.0809407234 0
          14.105701447 -6.1021351814 0 13.488761902 -5.1345233917 0
          12.399147034 -5.1698775291 0 5.692445755 7.7075486183 0
          6.6734304428 8.7555856705 0 6.0830206871 9.7594089508 0
          4.3973670006 9.4251394272 0 -2.9899072647 4.1798291206 0
          -1.6160825491 4.6896114349 0 -1.8907899857 6.5116009712 0
          -3.488817215 5.5195565224 0 -12.186607361 7.8149061203 0
          -11.521820068 6.8654370308 0 -10.425595284 6.896320343 0
          -9.1473903656 8.109128952 0 -10.744193077 9.1211462021 0
          -11.806897163 8.8878355026 0 2.6042153835 -8.2455863953 0
          3.8674778938 -7.8156638145 0 4.3386068344 -6.9210605621 0
          3.8108270168 -5.9710612297 0 2.713987112 -5.9564342499 0
          2.2013349533 -6.9367165565 0 -13.272167206 -12.435909271 0
          -12.526921272 -11.62848568 0 0.48136404157 -0.18571928144 0
          -12.838238716 -10.728475571 0 -13.865531921 -10.561101913 0
          0.48136404157 -0.18571928144 0 -13.909787178 9.1061258316 0
          7.6272945404 -10.254322052 0 8.6678733826 -10.377104759 0
          10.1460495 -9.5711135864 0 8.7345485687 -8.3681125641 0
          7.6243143082 -8.4171934128 0 7.1098527908 -9.357875824 0
          2.8393826485 -12.912658691 0 3.6574733257 -13.599275589 0
          4.6941618919 -13.27428627 0 4.9199151993 -12.291090965 0
          4.1314516068 -11.508987427 0 3.0876076221 -11.805565834 0
          -12.4737463 -6.0507488251 0 -11.344470024 -5.9794011116 0
          -11.118707657 -4.5501775742 0 -12.81908226 -4.6361970901 0
          5.4556488991 -8.5749750137 0 6.0102381706 -9.4145431519 0
          7.1098527908 -9.357875824 0 7.6243143082 -8.4171934128 0
          7.0047941208 -7.5267629623 0 5.6622548103 -7.2360143661 0
          6.7108736038 4.2754154205 0 8.0627346039 4.8115701675 0
          8.4719572067 5.7942404747 0 7.8509144783 6.7405881882 0
          6.7957339287 6.7226490974 0 5.711274147 5.7253923416 0
          -5.6297483444 7.4853405952 0 -5.0105085373 6.7148141861 0
          -3.936975956 6.8330039978 0 -3.4837517738 7.7600569725 0
          -4.1410698891 8.6395711899 0 -5.2135338783 8.4830446243 0
          1.9757540226 -10.76505661 0 3.0876076221 -11.805565834 0
          4.1314516068 -11.508987427 0 4.4904661179 -10.506591797 0
          3.9106659889 -9.6541194916 0 2.9010887146 -9.6252727509 0
          -1.5094773769 12.739642143 0 -0.88347834349 11.93196106 0
          0.48136404157 -0.18571928144 0 0.12052833289 12.094277382 0
          0.42786350846 13.504236221 0 -4.9653291702 -13.105225563 0
          0.48136404157 -0.18571928144 0 -5.6012048721 -12.283362389 0
          -6.8938117027 -12.848443031 0 -1.7542179823 10.887182236 0
          -0.63561600447 10.152265549 0 0.43173032999 10.292947769 0
          0.82584834099 11.26058197 0 0.12052833289 12.094277382 0
          -0.88347834349 11.93196106 0 -8.2850036621 -1.8706849813 0
          -7.1129999161 -2.7125310898 0 -6.1514105797 -1.6545239687 0
          -6.638030529 0.11467680335 0 -7.9705448151 0.023274000734 0
          8.7345485687 -8.3681125641 0 10.1460495 -9.5711135864 0
          10.95567894 -8.1281490326 0 10.301368713 -7.2446298599 0
          9.1872844696 -7.3424744606 0 5.6241388321 1.8038073778 0
          6.7536921501 1.8724312782 0 7.7437534332 2.9189574718 0
          6.7108736038 4.2754154205 0 5.0275602341 3.2557086945 0
          -4.1410698891 8.6395711899 0 -3.4837517738 7.7600569725 0
          -2.3745388985 7.8791441917 0 -1.9644659758 8.8995056152 0
          -2.6546216011 9.787437439 0 -3.7220127583 9.6465902328 0
          12.036482811 -2.8220016956 0 13.379271507 -3.170623064 0
          13.670618057 -1.7728719711 0 12.296275139 -1.4454777241 0
          -1.6160825491 4.6896114349 0 -0.36064600945 5.2362613678 0
          0.025024000555 6.1580147743 0 -0.57546800375 7.0342173576 0
          -1.8907899857 6.5116009712 0 10.22806263 -5.2795405388 0
          10.792182922 -6.2157721519 0 11.922249794 -6.1749625206 0
          12.399147034 -5.1698775291 0 11.811378479 -4.2223510742 0
          10.505925179 -3.8673732281 0 -10.901451111 -11.688371658 0
          -8.994852066 -10.365725517 0 -9.4059104919 -8.8863925934 0
          -10.587716103 -8.9004669189 0 -11.148899078 -9.9013614655 0
          9.5565567017 5.9180445671 0 10.25554657 5.0622735023 0
          11.61656189 5.6233100891 0 11.072809219 7.0270981789 0
          9.9717903137 6.9444289207 0 4.6941618919 -13.27428627 0
          5.4912028313 -14.00850296 0 6.5339012146 -13.728923798 0
          6.6891694069 -12.77539444 0 5.8722238541 -12.071778297 0
          4.9199151993 -12.291090965 0 3.7356944084 12.107746124 0
          4.6081204414 11.444825172 0 6.0079236031 12.050965309 0
          5.4431848526 13.366305351 0 4.0270357132 13.466008186 0
          9.8497934341 -12.947406769 0 11.15468502 -13.68277359 0
          12.098925591 -12.555702209 0 11.623848915 -11.61366272 0
          9.8203306198 -11.441771507 0 1.3218057156 -8.6694726944 0
          2.6042153835 -8.2455863953 0 2.2013349533 -6.9367165565 0
          0.86196172237 -7.3866391182 0 2.1975419521 1.5118260384 0
          3.2936882973 1.5719829798 0 3.6371343136 2.6023042202 0
          2.4596624374 3.6417717934 0 1.6175279617 2.4666030407 0
          10.301368713 -7.2446298599 0 10.95567894 -8.1281490326 0
          12.056796074 -8.0427427292 0 12.532551765 -7.1184139252 0
          11.922249794 -6.1749625206 0 10.792182922 -6.2157721519 0
          -1.2132719755 -7.0447192192 0 -0.51356500387 -7.9048733711 0
          0.86196172237 -7.3866391182 0 0.40458866954 -6.0117316246 0
          -0.72248500586 -6.053194046 0 10.215819359 -1.6019699574 0
          10.738108635 -2.4766802788 0 12.036482811 -2.8220016956 0
          12.296275139 -1.4454777241 0 11.764003754 -0.54898965359 0
          10.706776619 -0.61162531376 0 -1.4031312466 -0.046742498875 0
          0.088808998466 -0.37117734551 0 0.66921532154 0.58986532688 0
          0.070471003652 1.5281686783 0 -1.0746903419 1.4252150059 0
          8.750333786 -13.246847153 0 9.8497934341 -12.947406769 0
          9.8203306198 -11.441771507 0 7.8791179657 -12.180650711 0
          -7.9705448151 0.023274000734 0 -6.638030529 0.11467680335 0
          -9.2774715424 13.392040253 0 0.48136404157 -0.18571928144 0
          -8.1835451126 13.645340919 0 12.952654839 6.196185112 0
          0.48136404157 -0.18571928144 0 13.620299339 5.3359761238 0
          13.317148209 7.2389974594 0 8.0627346039 4.8115701675 0
          8.722237587 3.9356501102 0 9.8304510117 4.0625491142 0
          10.25554657 5.0622735023 0 9.5565567017 5.9180445671 0
          8.4719572067 5.7942404747 0 13.348690987 11.243245125 0
          0.48136404157 -0.18571928144 0 14.169908524 12.389526367 0
          -12.218187332 -0.11493325233 0 -11.11141777 -1.0778156519 0
          -10.042598724 -1.0186146498 0 -9.5542764664 -0.056922998279 0
          -10.133289337 0.89844197035 0 -11.209003448 0.92694932222 0
          -7.9387426376 -5.744661808 0 -7.2639374733 -6.6303071976 0
          -6.1169672012 -6.5035462379 0 -5.650247097 -5.4633655548 0
          -6.3115215302 -4.5508136749 0 -7.7635002136 -4.2665138245 0
          7.3587660789 -4.7645711899 0 8.8066320419 -5.0331330299 0
          8.8721132278 -3.1040363312 0 7.4388642311 -2.7378339767 0
          6.8389487267 -3.7740712166 0 -12.83835125 -8.9507369995 0
          -12.226632118 -9.8786668777 0 -11.148899078 -9.9013614655 0
          -10.587716103 -8.9004669189 0 -11.21101284 -7.9295954704 0
          -12.383915901 -8.0025606155 0 -5.1662731171 5.354411602 0
          -3.488817215 5.5195565224 0 -3.936975956 6.8330039978 0
          -5.0105085373 6.7148141861 0 0.48136404157 -0.18571928144 0
          13.346858978 0.5268856883 0 13.94772625 -0.36542800069 0
          13.850331306 1.5536216497 0 4.0270357132 13.466008186 0
          0.48136404157 -0.18571928144 0 5.4431848526 13.366305351 0
          0.088808998466 -0.37117734551 0 0.63064199686 -1.3030773401 0
          1.7759987116 -1.2659916878 0 2.299875021 -0.3206936717 0
          1.734924674 0.60326331854 0 0.66921532154 0.58986532688 0
          1.8878036737 -3.0806000233 0 2.5701034069 -3.9754493237 0
          3.6554737091 -3.8501412868 0 4.0445218086 -2.8803913593 0
          3.4269332886 -2.0625655651 0 2.3555853367 -2.1374664307 0
          5.8722238541 -12.071778297 0 6.6891694069 -12.77539444 0
          7.8791179657 -12.180650711 0 7.1209745407 -11.094072342 0
          6.1525764465 -11.150773048 0 -11.992952347 5.7826275826 0
          -10.86571312 4.7672071457 0 -9.8510684967 5.8349132538 0
          -10.425595284 6.896320343 0 -11.521820068 6.8654370308 0
          1.7759987116 -1.2659916878 0 2.3555853367 -2.1374664307 0
          3.4269332886 -2.0625655651 0 3.6837604046 -0.70002776384 0
          2.299875021 -0.3206936717 0 9.8304510117 4.0625491142 0
          10.464504242 3.1762702465 0 11.895413399 2.8352851868 0
          12.138689041 4.2682437897 0 11.61656189 5.6233100891 0
          10.25554657 5.0622735023 0 -12.85939312 -13.388965607 0
          -11.814729691 -13.381971359 0 -10.901451111 -11.688371658 0
          -12.526921272 -11.62848568 0 -13.272167206 -12.435909271 0
          8.8500022888 7.862847805 0 9.9717903137 6.9444289207 0
          11.072809219 7.0270981789 0 11.539812088 8.0582847595 0
          10.897753716 9.0242776871 0 9.8283500671 8.9466543198 0
          -9.7019100189 -4.9044423103 0 -9.0701093674 -5.8356237411 0
          -7.9387426376 -5.744661808 0 -7.7635002136 -4.2665138245 0
          -9.1917600632 -3.938949585 0 -0.95241564512 9.1231822968 0
          0.13853649795 8.2477626801 0 0.95416468382 9.4259538651 0
          0.43173032999 10.292947769 0 -0.63561600447 10.152265549 0
          13.670618057 -1.7728719711 0 13.94772625 -0.36542800069 0
          0.48136404157 -0.18571928144 0 -0.65543466806 -12.572693825 0
          0.063356667757 -13.386651993 0 1.4453134537 -13.201245308 0
          0.99959164858 -11.82533741 0 -0.13799133897 -11.633540154 0
          9.2947788239 9.8532810211 0 9.8283500671 8.9466543198 0
          10.897753716 9.0242776871 0 11.352760315 10.081022263 0
          10.214287758 10.946167946 0 -6.4549298286 13.025835991 0
          -5.7832198143 12.201825142 0 -4.5129275322 12.87924099 0
          -5.028591156 14.192856789 0 -6.0778808594 14.01961422 0
          6.6734304428 8.7555856705 0 7.7690658569 8.7933835983 0
          8.2717723846 9.7800474167 0 7.7430357933 10.654706955 0
          6.6499195099 10.671867371 0 6.0830206871 9.7594089508 0
          -13.145635605 -3.191634655 0 -12.092568398 -2.1564137936 0
          0.48136404157 -0.18571928144 0 -13.212882042 -1.1745510101 0
          -1.330739975 -5.1172642708 0 -0.72248500586 -6.053194046 0
          0.40458866954 -6.0117316246 0 0.9321269989 -5.0410189629 0
          0.31332832575 -4.1037864685 0 -0.82246500254 -4.138569355 0
          -1.7126686573 2.3341400623 0 -1.0746903419 1.4252150059 0
          0.070471003652 1.5281686783 0 0.55616635084 2.4963436127 0
          -0.056074000895 3.4099535942 0 -1.1797477007 3.3507037163 0
          -8.5003471375 6.1464452744 0 -7.1397352219 6.4894995689 0
          -6.6918253899 7.3710017204 0 -7.3098387718 8.1982507706 0
          -9.1473903656 8.109128952 0 1.4337956905 6.1123862267 0
          2.9109892845 5.9239621162 0 3.5551168919 6.7701926231 0
          3.25522089 7.8568148613 0 2.2835268974 8.175116539 0
          1.3869663477 7.5198554993 0 7.4011445045 12.55245018 0
          8.6123867035 11.750481606 0 9.4630565643 12.898639679 0
          8.8089065552 13.800953865 0 7.6781058311 13.599127769 0
          -7.1397352219 6.4894995689 0 -6.5625414848 5.6594901085 0
          -5.1662731171 5.354411602 0 -5.0105085373 6.7148141861 0
          -5.6297483444 7.4853405952 0 -6.6918253899 7.3710017204 0
          -13.334964752 7.7058501244 0 -12.186607361 7.8149061203 0
          -11.806897163 8.8878355026 0 -12.605843544 9.7793512344 0
          -13.909787178 9.1061258316 0 -2.9985506535 -4.3199014664 0
          -2.4137282372 -5.2107806206 0 -1.330739975 -5.1172642708 0
          -0.82246500254 -4.138569355 0 -1.2500499487 -2.7574110031 0
          -2.5654220581 -3.3190903664 0 -2.8559272289 -6.1980056763 0
          -2.263725996 -7.0960144997 0 -1.2132719755 -7.0447192192 0
          -0.72248500586 -6.053194046 0 -1.330739975 -5.1172642708 0
          -2.4137282372 -5.2107806206 0 -5.6012048721 -12.283362389 0
          -4.9653291702 -13.105225563 0 -3.9659900665 -13.021107674 0
          -3.5587790012 -12.141070366 0 -4.1490626335 -11.267030716 0
          -5.4477949142 -10.864948273 0 -9.0384349823 1.8660999537 0
          -7.9705448151 0.023274000734 0 -6.638030529 0.11467680335 0
          -6.2831125259 1.9790810347 0 -6.8985648155 2.9042327404 0
          -7.9875116348 2.8541784286 0 -2.4932713509 -11.964836121 0
          -1.7422627211 -12.728861809 0 -0.65543466806 -12.572693825 0
          -0.13799133897 -11.633540154 0 -0.6421096921 -10.706456184 0
          -2.1848213673 -10.535211563 0 -2.5319795609 12.630993843 0
          0.48136404157 -0.18571928144 0 -1.5094773769 12.739642143 0
          -7.61292696 9.9807958603 0 -6.9280085564 9.1494169235 0
          -5.8937802315 9.3198728561 0 -5.4981794357 10.358047485 0
          -6.1759328842 11.191693306 0 -7.2564525604 10.98489666 0
          -3.4394264221 -0.72115701437 0 -2.8116459846 -1.5726886988 0
          -1.7050276995 -1.4448853731 0 -1.4031312466 -0.046742498875 0
          -2.8975629807 0.26473534107 0 13.379271507 -3.170623064 0
          13.982723236 -4.0999631882 0 13.670618057 -1.7728719711 0
          0.48136404157 -0.18571928144 0 -13.335412979 0.82677000761 0
          0.48136404157 -0.18571928144 0 -12.872053146 1.8086169958 0
          -13.492595673 2.7098889351 0 13.208360672 4.3464751244 0
          0.48136404157 -0.18571928144 0 13.620299339 5.3359761238 0
          2.7695646286 10.123797417 0 4.3973670006 9.4251394272 0
          4.6081204414 11.444825172 0 3.7356944084 12.107746124 0
          2.3010900021 11.609945297 0 -3.154651165 -8.2416439056 0
          -1.9420269728 -9.096446991 0 -0.84977066517 -8.8382129669 0
          -0.51356500387 -7.9048733711 0 -1.2132719755 -7.0447192192 0
          -2.263725996 -7.0960144997 0 -6.638030529 0.11467680335 0
          -5.1145644188 0.19004566967 0 -4.6063146591 1.1458146572 0
          -5.1955103874 2.0636167526 0 -6.2831125259 1.9790810347 0
          -13.28424263 13.69299221 0 -12.609148979 12.785340309 0
          -11.50183773 12.930632591 0 0.48136404157 -0.18571928144 0
          -8.1835451126 13.645340919 0 -7.5132875443 12.82899189 0
          0.48136404157 -0.18571928144 0 -6.4549298286 13.025835991 0
          -6.0778808594 14.01961422 0 -10.374038696 -3.0603981018 0
          -9.1917600632 -3.938949585 0 -7.7635002136 -4.2665138245 0
          -7.1129999161 -2.7125310898 0 -8.2850036621 -1.8706849813 0
          -9.3762617111 -1.9819630384 0 1.734924674 0.60326331854 0
          2.299875021 -0.3206936717 0 3.6837604046 -0.70002776384 0
          3.9543347359 0.71488463879 0 3.2936882973 1.5719829798 0
          2.1975419521 1.5118260384 0 11.66446209 1.3665213585 0
          12.263155937 0.44431334734 0 13.346858978 0.5268856883 0
          13.850331306 1.5536216497 0 13.293989182 2.4777510166 0
          11.895413399 2.8352851868 0 -12.81908226 -4.6361970901 0
          -11.118707657 -4.5501775742 0 -10.374038696 -3.0603981018 0
          -12.092568398 -2.1564137936 0 -13.145635605 -3.191634655 0
          13.730825424 -8.9549922943 0 14.209931374 -7.958627224 0
          0.48136404157 -0.18571928144 0 3.4039037228 4.8246340752 0
          4.5344276428 4.733590126 0 5.711274147 5.7253923416 0
          4.6780729294 6.6792764664 0 3.5551168919 6.7701926231 0
          2.9109892845 5.9239621162 0 7.7437534332 2.9189574718 0
          8.8908929825 2.0380387306 0 9.9649057388 2.1466677189 0
          10.464504242 3.1762702465 0 9.8304510117 4.0625491142 0
          8.722237587 3.9356501102 0 -13.28424263 13.69299221 0
          0.48136404157 -0.18571928144 0 -7.1129999161 -2.7125310898 0
          -5.8993945122 -3.5371184349 0 -4.5612072945 -3.0326430798 0
          -4.7932915688 -1.189893961 0 -6.1514105797 -1.6545239687 0
          -7.7146420479 -7.7352461815 0 -6.9869041443 -8.6345586777 0
          -5.8090558052 -8.4462099075 0 -5.3898229599 -7.4201359749 0
          -6.1169672012 -6.5035462379 0 -7.2639374733 -6.6303071976 0
          -6.8985648155 2.9042327404 0 -6.2831125259 1.9790810347 0
          -5.1955103874 2.0636167526 0 -4.6990027428 3.0730433464 0
          -5.3253297806 3.9684872627 0 -6.437289238 3.8842122555 0
          5.4912028313 -14.00850296 0 4.6941618919 -13.27428627 0
          0.48136404157 -0.18571928144 0 3.6574733257 -13.599275589 0
          -3.213821888 -2.506062746 0 -2.5654220581 -3.3190903664 0
          -1.2500499487 -2.7574110031 0 -1.7050276995 -1.4448853731 0
          -2.8116459846 -1.5726886988 0 -0.36064600945 5.2362613678 0
          0.33200865984 4.3849377632 0 1.321754694 4.6238431931 0
          1.4337956905 6.1123862267 0 0.025024000555 6.1580147743 0
          -13.611128807 4.6463041306 0 -12.979217529 3.6975169182 0
          -11.886260033 3.7259676456 0 -10.86571312 4.7672071457 0
          -11.992952347 5.7826275826 0 -13.121973991 5.6900453568 0
          1.4453134537 -13.201245308 0 0.48136404157 -0.18571928144 0
          0.063356667757 -13.386651993 0 -0.82246500254 -4.138569355 0
          0.31332832575 -4.1037864685 0 0.79865133762 -3.1586446762 0
          0.12107633054 -2.2525966167 0 -1.2500499487 -2.7574110031 0
          -13.865531921 -10.561101913 0 -12.838238716 -10.728475571 0
          -12.226632118 -9.8786668777 0 0.48136404157 -0.18571928144 0
          -12.83835125 -8.9507369995 0 6.7536921501 1.8724312782 0
          7.3880157471 0.98079931736 0 8.4578762054 1.0816736221 0
          8.8908929825 2.0380387306 0 7.7437534332 2.9189574718 0
          6.5339012146 -13.728923798 0 0.48136404157 -0.18571928144 0
          5.4912028313 -14.00850296 0 -4.5242938995 -5.3831982613 0
          -3.8982872963 -6.2863497734 0 -2.8559272289 -6.1980056763 0
          -2.4137282372 -5.2107806206 0 -2.9985506535 -4.3199014664 0
          -4.0667562485 -4.4039754868 0 -9.3513431549 11.933973312 0
          -7.9220972061 11.798185349 0 -7.5132875443 12.82899189 0
          -8.1835451126 13.645340919 0 -9.2774715424 13.392040253 0
          6.6499195099 10.671867371 0 7.7430357933 10.654706955 0
          8.6123867035 11.750481606 0 7.4011445045 12.55245018 0
          6.0079236031 12.050965309 0 -4.1490626335 -11.267030716 0
          -3.5587790012 -12.141070366 0 -2.4932713509 -11.964836121 0
          -2.1848213673 -10.535211563 0 -3.6272623539 -10.384163857 0
          7.0047941208 -7.5267629623 0 7.6243143082 -8.4171934128 0
          8.7345485687 -8.3681125641 0 9.1872844696 -7.3424744606 0
          8.5165185928 -6.4810972214 0 7.4442625046 -6.6163048744 0
          -13.009805679 11.730895996 0 -12.278071404 10.835597992 0
          -11.177499771 11.03940773 0 -10.801922798 12.079998016 0
          -11.50183773 12.930632591 0 -12.609148979 12.785340309 0
          -4.2970962524 -7.2831063271 0 -3.154651165 -8.2416439056 0
          -2.263725996 -7.0960144997 0 -2.8559272289 -6.1980056763 0
          -3.8982872963 -6.2863497734 0 -11.773126602 1.863155961 0
          -11.209003448 0.92694932222 0 -10.133289337 0.89844197035 0
          -9.0384349823 1.8660999537 0 -9.9707584381 3.3059923649 0
          -11.300711632 2.7928786278 0 3.6837604046 -0.70002776384 0
          5.4018659592 -1.4646254778 0 5.7200069427 -0.098901666701 0
          5.1125335693 0.78530865908 0 3.9543347359 0.71488463879 0
          -13.611128807 4.6463041306 0 0.48136404157 -0.18571928144 0
          -13.121973991 5.6900453568 0 -13.799199104 6.6637983322 0
          -13.212882042 -1.1745510101 0 -12.092568398 -2.1564137936 0
          -11.11141777 -1.0778156519 0 -12.218187332 -0.11493325233 0
          -2.9129359722 11.682161331 0 -1.7542179823 10.887182236 0
          -0.88347834349 11.93196106 0 -1.5094773769 12.739642143 0
          -2.5319795609 12.630993843 0 4.1314516068 -11.508987427 0
          4.9199151993 -12.291090965 0 5.8722238541 -12.071778297 0
          6.1525764465 -11.150773048 0 5.559281826 -10.367690086 0
          4.4904661179 -10.506591797 0 -13.865531921 -10.561101913 0
          0.48136404157 -0.18571928144 0 5.6622548103 -7.2360143661 0
          7.0047941208 -7.5267629623 0 7.4442625046 -6.6163048744 0
          6.8179841042 -5.7306661606 0 5.8188886642 -5.8471961021 0
          3.9106659889 -9.6541194916 0 4.4904661179 -10.506591797 0
          5.559281826 -10.367690086 0 6.0102381706 -9.4145431519 0
          5.4556488991 -8.5749750137 0 4.4248929024 -8.6756496429 0
          -3.936975956 6.8330039978 0 -3.488817215 5.5195565224 0
          -1.8907899857 6.5116009712 0 -2.3745388985 7.8791441917 0
          -3.4837517738 7.7600569725 0 -13.335412979 0.82677000761 0
          -12.218187332 -0.11493325233 0 -11.209003448 0.92694932222 0
          -11.773126602 1.863155961 0 -12.872053146 1.8086169958 0
          9.9649057388 2.1466677189 0 10.583337784 1.2557849884 0
          11.66446209 1.3665213585 0 11.895413399 2.8352851868 0
          10.464504242 3.1762702465 0 -2.1848213673 -10.535211563 0
          -0.6421096921 -10.706456184 0 -0.093560665846 -9.7415904999 0
          -0.84977066517 -8.8382129669 0 -1.9420269728 -9.096446991 0
          5.4018659592 -1.4646254778 0 6.8527874947 -1.782294631 0
          7.1519236565 -0.39970076084 0 5.7200069427 -0.098901666701 0
          -9.0384349823 1.8660999537 0 -7.9875116348 2.8541784286 0
          -8.6273107529 3.8158047199 0 -9.9707584381 3.3059923649 0
          8.8721132278 -3.1040363312 0 10.505925179 -3.8673732281 0
          10.738108635 -2.4766802788 0 10.215819359 -1.6019699574 0
          9.134677887 -1.6578572989 0 2.9010887146 -9.6252727509 0
          3.9106659889 -9.6541194916 0 4.4248929024 -8.6756496429 0
          3.8674778938 -7.8156638145 0 2.6042153835 -8.2455863953 0
          13.293989182 2.4777510166 0 0.48136404157 -0.18571928144 0
          13.850331306 1.5536216497 0 2.2617707253 13.421832085 0
          0.48136404157 -0.18571928144 0 4.0270357132 13.466008186 0
          -13.009805679 11.730895996 0 0.48136404157 -0.18571928144 0
          -12.609148979 12.785340309 0 -13.28424263 13.69299221 0
          -3.2143642902 2.696397543 0 -1.7126686573 2.3341400623 0
          -1.1797477007 3.3507037163 0 -1.6160825491 4.6896114349 0
          -2.9899072647 4.1798291206 0 8.6123867035 11.750481606 0
          10.214287758 10.946167946 0 10.91140461 12.589702606 0
          9.4630565643 12.898639679 0 -0.57546800375 7.0342173576 0
          0.025024000555 6.1580147743 0 1.4337956905 6.1123862267 0
          1.3869663477 7.5198554993 0 0.13853649795 8.2477626801 0
          3.6554737091 -3.8501412868 0 4.7640047073 -4.8578867912 0
          5.7317910194 -3.7362613678 0 5.1502866745 -2.8032655716 0
          4.0445218086 -2.8803913593 0 0.93225800991 -9.6343851089 0
          1.9757540226 -10.76505661 0 2.9010887146 -9.6252727509 0
          2.6042153835 -8.2455863953 0 1.3218057156 -8.6694726944 0
          -5.1145644188 0.19004566967 0 -4.7932915688 -1.189893961 0
          -3.4394264221 -0.72115701437 0 -2.8975629807 0.26473534107 0
          -3.4759991169 1.1993073225 0 -4.6063146591 1.1458146572 0
          4.3973670006 9.4251394272 0 6.0830206871 9.7594089508 0
          6.6499195099 10.671867371 0 6.0079236031 12.050965309 0
          4.6081204414 11.444825172 0 -11.814729691 -13.381971359 0
          -11.245308876 -14.190727234 0 -10.20369339 -13.981995583 0
          -9.8985643387 -12.946980476 0 -10.901451111 -11.688371658 0
          -13.212882042 -1.1745510101 0 0.48136404157 -0.18571928144 0
          -12.218187332 -0.11493325233 0 -13.335412979 0.82677000761 0
          -9.8985643387 -12.946980476 0 -8.5538425446 -13.065784454 0
          -8.56590271 -11.716286659 0 -8.994852066 -10.365725517 0
          -10.901451111 -11.688371658 0 -10.20369339 -13.981995583 0
          -8.5538425446 -13.065784454 0 0.48136404157 -0.18571928144 0
          -9.8985643387 -12.946980476 0 0.48136404157 -0.18571928144 0
          13.157998085 13.427361488 0 -6.1759328842 11.191693306 0
          -5.4981794357 10.358047485 0 -4.3988757133 10.52823925 0
          -3.9919607639 11.534815788 0 -4.5129275322 12.87924099 0
          -5.7832198143 12.201825142 0 -4.0667562485 -4.4039754868 0
          -2.9985506535 -4.3199014664 0 -2.5654220581 -3.3190903664 0
          -3.213821888 -2.506062746 0 -4.5612072945 -3.0326430798 0
          11.764003754 -0.54898965359 0 12.296275139 -1.4454777241 0
          13.670618057 -1.7728719711 0 13.94772625 -0.36542800069 0
          13.346858978 0.5268856883 0 12.263155937 0.44431334734 0
          -11.344470024 -5.9794011116 0 -10.709869385 -6.9015445709 0
          -9.5543031693 -6.8316440582 0 -9.0701093674 -5.8356237411 0
          -9.7019100189 -4.9044423103 0 -11.118707657 -4.5501775742 0
          12.098925591 -12.555702209 0 13.25560379 -12.421291351 0
          12.409982681 -10.786092758 0 0.48136404157 -0.18571928144 0
          11.623848915 -11.61366272 0 -0.056074000895 3.4099535942 0
          0.55616635084 2.4963436127 0 1.6175279617 2.4666030407 0
          2.4596624374 3.6417717934 0 1.321754694 4.6238431931 0
          0.33200865984 4.3849377632 0 11.15468502 -13.68277359 0
          9.8497934341 -12.947406769 0 0.48136404157 -0.18571928144 0
          8.750333786 -13.246847153 0 -11.886260033 3.7259676456 0
          -11.300711632 2.7928786278 0 -9.9707584381 3.3059923649 0
          -10.86571312 4.7672071457 0 0.13853649795 8.2477626801 0
          1.3869663477 7.5198554993 0 2.2835268974 8.175116539 0
          2.0175046921 9.2900085449 0 0.95416468382 9.4259538651 0
          -8.56590271 -11.716286659 0 -7.4566988945 -11.574765205 0
          -7.2179441452 -10.153490067 0 -8.994852066 -10.365725517 0
          11.072809219 7.0270981789 0 11.61656189 5.6233100891 0
          12.952654839 6.196185112 0 13.317148209 7.2389974594 0
          12.651516914 8.1645879745 0 11.539812088 8.0582847595 0
          0.48136404157 -0.18571928144 0 -10.20369339 -13.981995583 0
          -11.245308876 -14.190727234 0 10.505925179 -3.8673732281 0
          11.811378479 -4.2223510742 0 12.036482811 -2.8220016956 0
          10.738108635 -2.4766802788 0 -5.8090558052 -8.4462099075 0
          -4.6332058907 -9.4243507385 0 -3.154651165 -8.2416439056 0
          -4.2970962524 -7.2831063271 0 -5.3898229599 -7.4201359749 0
          7.8791179657 -12.180650711 0 9.8203306198 -11.441771507 0
          8.6678733826 -10.377104759 0 7.6272945404 -10.254322052 0
          7.1209745407 -11.094072342 0 13.348690987 11.243245125 0
          14.169908524 12.389526367 0 13.157998085 13.427361488 0
          12.331261635 12.194164276 0 -0.84977066517 -8.8382129669 0
          -0.093560665846 -9.7415904999 0 0.93225800991 -9.6343851089 0
          1.3218057156 -8.6694726944 0 0.86196172237 -7.3866391182 0
          -0.51356500387 -7.9048733711 0 3.2936882973 1.5719829798 0
          3.9543347359 0.71488463879 0 5.1125335693 0.78530865908 0
          5.6241388321 1.8038073778 0 5.0275602341 3.2557086945 0
          3.6371343136 2.6023042202 0 8.8089065552 13.800953865 0
          0.48136404157 -0.18571928144 0 9.4630565643 12.898639679 0
          10.91140461 12.589702606 0 5.0275602341 3.2557086945 0